 Gaussian 09, Revision D.01,
 Gaussian 09:  EM64L-G09RevD.01 24-Apr-2013

 --------------------------
 #p svwn5/6-31g* guess=core
 --------------------------

 -------------------
 Title Card Required
 -------------------
 Symbolic Z-matrix:
 Charge =  0 Multiplicity = 1

                         Standard orientation:
 ---------------------------------------------------------------------
 Center     Atomic      Atomic             Coordinates (Angstroms)
 Number     Number       Type             X           Y           Z
 ---------------------------------------------------------------------
      1          6           0        0.000000    0.463133    0.000000
      2          6           0       -0.935411   -0.720058    0.000000
      3          8           0        1.208199    0.386722    0.000000
      4          1           0       -0.503791    1.457138    0.000000
      5          1           0       -0.369919   -1.654663    0.000000
      6          1           0       -1.589710   -0.677352    0.880800
      7          1           0       -1.589710   -0.677352   -0.880800
 ---------------------------------------------------------------------

 SCF Done:  E(RS-VWN5) =  -152.543548837     A.U. after   18 cycles

 The electronic state is 1-A'.
 Alpha  occ. eigenvalues --  -18.62228  -9.88050  -9.79923  -0.95032  -0.67781
 Alpha  occ. eigenvalues --   -0.51658  -0.42356  -0.40011  -0.38064  -0.34830
 Alpha  occ. eigenvalues --   -0.32703  -0.20587
 Alpha virt. eigenvalues --   -0.06466   0.07931   0.10338   0.11963   0.12195
 Alpha virt. eigenvalues --    0.21371   0.24087   0.47336   0.48343   0.53905
 Alpha virt. eigenvalues --    0.54872   0.60583   0.64505   0.70303   0.79504

 Mulliken charges:
               1
     1  C    0.189035
     2  C   -0.608369
     3  O   -0.322082
     4  H    0.120291
     5  H    0.209715
     6  H    0.205705
     7  H    0.205705
 Sum of Mulliken charges =   0.00000

 Dipole moment (field-independent basis, Debye):
    X=             -2.5705    Y=             -0.3684    Z=              0.0000  Tot=              2.5968
 Quadrupole moment (field-independent basis, Debye-Ang):
   XX=            -20.2950   YY=            -17.7817   ZZ=            -17.6579
   XY=             -0.6663   XZ=              0.0000   YZ=              0.0000

 Normal termination of Gaussian 09 at Tue Jul  7 20:36:39 2015.
