 Gaussian 09, Revision D.01,
 Gaussian 09:  EM64L-G09RevD.01 24-Apr-2013

 -------------------------------------------------------------------
 #p b3lyp lanl2dz guess=core iop(5/10=-1) iop(5/18=-2) symmetry=none
 -------------------------------------------------------------------

 -------------------
 Title Card Required
 -------------------
 Symbolic Z-matrix:
 Charge =  0 Multiplicity = 1

                          Input orientation:
 ---------------------------------------------------------------------
 Center     Atomic      Atomic             Coordinates (Angstroms)
 Number     Number       Type             X           Y           Z
 ---------------------------------------------------------------------
      1         44           0       -0.219401   -1.353713   -0.552094
      2         44           0       -0.218751    1.354097   -0.551737
      3         44           0        1.218036   -0.000363    0.874787
      4         44           0       -1.831167    0.000061    0.392072
      5          6           0        2.757624   -0.000445   -0.123186
      6          8           0        3.713844   -0.000111   -0.804262
 ---------------------------------------------------------------------

 SCF Done:  E(RB3LYP) =  -488.704767349     A.U. after   43 cycles

 Alpha  occ. eigenvalues --  -19.19716 -10.29144  -2.88657  -2.87991  -2.87479
 Alpha  occ. eigenvalues --   -2.87245  -1.80078  -1.78230  -1.77971  -1.76737
 Alpha  occ. eigenvalues --   -1.76416  -1.75722  -1.74975  -1.74471  -1.74232
 Alpha  occ. eigenvalues --   -1.74018  -1.73898  -1.73373  -1.11991  -0.53947
 Alpha  occ. eigenvalues --   -0.43850  -0.43202  -0.43092  -0.34920  -0.30459
 Alpha  occ. eigenvalues --   -0.29980  -0.28530  -0.27860  -0.27195  -0.26508
 Alpha  occ. eigenvalues --   -0.25399  -0.22846  -0.22763  -0.22046  -0.20706
 Alpha  occ. eigenvalues --   -0.20553  -0.19832  -0.17856  -0.17270
 Alpha virt. eigenvalues --   -0.11621  -0.11486  -0.10139  -0.09874  -0.09000
 Alpha virt. eigenvalues --   -0.08158  -0.07297  -0.04199  -0.02344  -0.01729
 Alpha virt. eigenvalues --   -0.00366   0.00853   0.02295   0.03178   0.03397

 Mulliken charges:
               1
     1  Ru   0.023036
     2  Ru   0.023037
     3  Ru   0.117673
     4  Ru  -0.026508
     5  C    0.026843
     6  O   -0.164081
 Sum of Mulliken charges =   0.00000

 Dipole moment (field-independent basis, Debye):
    X=             -2.8543    Y=              0.0003    Z=              0.8568  Tot=              2.9801
 Quadrupole moment (field-independent basis, Debye-Ang):
   XX=           -102.2331   YY=            -87.2728   ZZ=            -92.4086
   XY=              0.0016   XZ=              2.8098   YZ=              0.0001

 Normal termination of Gaussian 09 at Wed Jul  8 21:29:55 2015.
