 Gaussian 09, Revision D.01,
 Gaussian 09:  ES64L-G09RevD.01 24-Apr-2013

 ----------------------------------------------------------------------
 #p bv5lyp/3-21g iop(3/76=1000002000) iop(3/77=0720008000) iop(3/78=081
 0010000) guess=core
 ----------------------------------------------------------------------

 -------------------
 Title Card Required
 -------------------
 Symbolic Z-matrix:
 Charge =  2 Multiplicity = 1

                         Standard orientation:
 ---------------------------------------------------------------------
 Center     Atomic      Atomic             Coordinates (Angstroms)
 Number     Number       Type             X           Y           Z
 ---------------------------------------------------------------------
      1          6           0        2.789343    0.740153   -0.000006
      2          1           0        3.699705    1.315321   -0.000005
      3          6           0        1.489141    1.148729    0.000011
      4          1           0        1.095680    2.150351    0.000035
      5          6           0        1.505673   -1.105101   -0.000008
      6          1           0        1.220972   -2.143783    0.000073
      7          7           0        2.771491   -0.656327   -0.000009
      8          1           0        3.603538   -1.250416    0.000049
      9         48           0       -1.426682   -0.000879    0.000000
     10          7           0        0.679350   -0.019671   -0.000010
 ---------------------------------------------------------------------

 SCF Done:  E(RB+HF-V5LYP) =  -5666.70248079     A.U. after   20 cycles

 The electronic state is 1-A.
 Alpha  occ. eigenvalues -- -940.39432-138.08188-128.30515-128.30493-128.30428
 Alpha  occ. eigenvalues --  -26.42970 -22.25155 -22.25095 -22.24678 -15.51715
 Alpha  occ. eigenvalues --  -15.51714 -15.51432 -15.51388 -15.51337 -14.66920
 Alpha  occ. eigenvalues --  -14.66097 -10.55549 -10.49471 -10.49059  -4.27581
 Alpha  occ. eigenvalues --   -2.92647  -2.92510  -2.92289  -1.38134  -1.23596
 Alpha  occ. eigenvalues --   -1.10191  -1.03148  -1.01948  -1.01865  -1.01863
 Alpha  occ. eigenvalues --   -1.01709  -0.95876  -0.94293  -0.90798  -0.79671
 Alpha  occ. eigenvalues --   -0.78245  -0.78082  -0.76715  -0.72650  -0.64896
 Alpha  occ. eigenvalues --   -0.57635
 Alpha virt. eigenvalues --   -0.53519  -0.38038  -0.37444  -0.32247  -0.28858
 Alpha virt. eigenvalues --   -0.27546  -0.21277  -0.18712  -0.18040  -0.16251
 Alpha virt. eigenvalues --   -0.15260  -0.13999  -0.12025  -0.10964  -0.09438

 Mulliken charges:
               1
     1  C    0.111943
     2  H    0.340524
     3  C    0.012338
     4  H    0.305059
     5  C    0.433893
     6  H    0.339550
     7  N   -0.683455
     8  H    0.427960
     9  Cd   1.426114
    10  N   -0.713927
 Sum of Mulliken charges =   2.00000

 Dipole moment (field-independent basis, Debye):
    X=             -1.0430    Y=             -1.2475    Z=              0.0002  Tot=              1.6261
 Quadrupole moment (field-independent basis, Debye-Ang):
   XX=              8.7298   YY=            -30.8445   ZZ=            -45.8097
   XY=             -3.6022   XZ=              0.0005   YZ=             -0.0003

 Normal termination of Gaussian 09 at Thu Jun 18 14:49:12 2015.
