 Gaussian 09, Revision D.01,
 Gaussian 09:  ES64L-G09RevD.01 24-Apr-2013

 -----------------
 # b3lyp/3-21g opt
 -----------------

 -------------------
 Title Card Required
 -------------------
 Symbolic Z-matrix:
 Charge =  2 Multiplicity = 1

 SCF Done:  E(RB3LYP) =  -5667.02262287     A.U. after   19 cycles

 The electronic state is 1-A.
 Alpha  occ. eigenvalues -- -940.39822-138.08569-128.30897-128.30875-128.30810
 Alpha  occ. eigenvalues --  -26.43347 -22.25532 -22.25472 -22.25055 -15.52093
 Alpha  occ. eigenvalues --  -15.52091 -15.51809 -15.51766 -15.51715 -14.67277
 Alpha  occ. eigenvalues --  -14.66461 -10.55923 -10.49846 -10.49434  -4.27955
 Alpha  occ. eigenvalues --   -2.93021  -2.92885  -2.92660  -1.38447  -1.23919
 Alpha  occ. eigenvalues --   -1.10519  -1.03505  -1.02314  -1.02236  -1.02234
 Alpha  occ. eigenvalues --   -1.02077  -0.96210  -0.94626  -0.91126  -0.80001
 Alpha  occ. eigenvalues --   -0.78565  -0.78416  -0.77052  -0.72984  -0.65225
 Alpha  occ. eigenvalues --   -0.57969
 Alpha virt. eigenvalues --   -0.53839  -0.38325  -0.37740  -0.32581  -0.29141
 Alpha virt. eigenvalues --   -0.27892  -0.21488  -0.19006  -0.18319  -0.16541
 Alpha virt. eigenvalues --   -0.15438  -0.14259  -0.12332  -0.11294  -0.09741

 Mulliken charges:
               1
     1  C    0.111477
     2  H    0.340853
     3  C    0.011834
     4  H    0.305285
     5  C    0.433480
     6  H    0.339797
     7  N   -0.683747
     8  H    0.428224
     9  Cd   1.426756
    10  N   -0.713959
 Sum of Mulliken charges =   2.00000

 Dipole moment (field-independent basis, Debye):
    X=             -1.0487    Y=             -1.2465    Z=              0.0008  Tot=              1.6290
 Quadrupole moment (field-independent basis, Debye-Ang):
   XX=              8.7704   YY=            -30.8237   ZZ=            -45.8039
   XY=             -3.6025   XZ=              0.0021   YZ=             -0.0007

 Optimization completed.
    -- Stationary point found.

                         Standard orientation:
 ---------------------------------------------------------------------
 Center     Atomic      Atomic             Coordinates (Angstroms)
 Number     Number       Type             X           Y           Z
 ---------------------------------------------------------------------
      1          6           0        2.789995    0.740564   -0.000018
      2          1           0        3.700496    1.316116    0.000000
      3          6           0        1.489449    1.148972    0.000020
      4          1           0        1.095529    2.150748    0.000045
      5          6           0        1.506570   -1.105452   -0.000040
      6          1           0        1.222031   -2.144495    0.000002
      7          7           0        2.772461   -0.656288    0.000010
      8          1           0        3.604843   -1.250326    0.000303
      9         48           0       -1.427171   -0.000888    0.000007
     10          7           0        0.679713   -0.019988   -0.000078
 ---------------------------------------------------------------------

 Normal termination of Gaussian 09 at Thu Jun 18 15:29:10 2015.
