 Gaussian 09, Revision D.01,
 Gaussian 09:  ES64L-G09RevD.01 24-Apr-2013

 -----------
 # hf/6-31g*
 -----------

 -------------------
 Title Card Required
 -------------------
 Symbolic Z-matrix:
 Charge =  0 Multiplicity = 1

                         Standard orientation:
 ---------------------------------------------------------------------
 Center     Atomic      Atomic             Coordinates (Angstroms)
 Number     Number       Type             X           Y           Z
 ---------------------------------------------------------------------
      1          6           0       -1.171138   -0.148546    0.000004
      2          1           0       -1.714145    0.219764   -0.880470
      3          1           0       -1.713691    0.218958    0.881075
      4          1           0       -1.155613   -1.240682   -0.000601
      5          6           0        0.234078    0.399597    0.000022
      6          1           0        0.301980    1.511628   -0.000146
      7          8           0        1.237979   -0.276996   -0.000002
 ---------------------------------------------------------------------

 SCF Done:  E(RHF) =  -152.914412049     A.U. after   12 cycles

 The electronic state is 1-A.
 Alpha  occ. eigenvalues --  -20.56777 -11.33954 -11.24347  -1.39107  -1.01860
 Alpha  occ. eigenvalues --   -0.79882  -0.67070  -0.62094  -0.60171  -0.55962
 Alpha  occ. eigenvalues --   -0.49976  -0.42195
 Alpha virt. eigenvalues --    0.15476   0.24590   0.27546   0.30053   0.30300
 Alpha virt. eigenvalues --    0.41953   0.44613   0.74477   0.75774   0.79234
 Alpha virt. eigenvalues --    0.80583   0.91011   0.96919   0.97606   1.10297

 Mulliken charges:
               1
     1  C   -0.583122
     2  H    0.188544
     3  H    0.188568
     4  H    0.209400
     5  C    0.335888
     6  H    0.141385
     7  O   -0.480663
 Sum of Mulliken charges =   0.00000

 Dipole moment (field-independent basis, Debye):
    X=             -2.7853    Y=              1.3755    Z=              0.0001  Tot=              3.1064
 Quadrupole moment (field-independent basis, Debye-Ang):
   XX=            -21.3937   YY=            -17.7316   ZZ=            -17.8605
   XY=              1.0264   XZ=              0.0000   YZ=              0.0003

 Normal termination of Gaussian 09 at Fri Jun 19 00:30:22 2015.
