 Gaussian 09, Revision D.01,
 Gaussian 09:  ES64L-G09RevD.01 24-Apr-2013

 -----------------------------------------
 #p rb3lyp/6-31g* guess=core symmetry=none
 -----------------------------------------

 -------------------
 Title Card Required
 -------------------
 Symbolic Z-matrix:
 Charge =  0 Multiplicity = 1

                          Input orientation:
 ---------------------------------------------------------------------
 Center     Atomic      Atomic             Coordinates (Angstroms)
 Number     Number       Type             X           Y           Z
 ---------------------------------------------------------------------
      1         24           0        0.000000    0.000000    0.000000
      2          6           0        0.000000    0.000000    2.000000
 ---------------------------------------------------------------------

 SCF Done:  E(RB3LYP) =  -1082.11952402     A.U. after   42 cycles

 Alpha  occ. eigenvalues -- -215.70814 -24.68885 -20.99461 -20.97559 -20.97559
 Alpha  occ. eigenvalues --  -10.20817  -2.84547  -1.80631  -1.78542  -1.78542
 Alpha  occ. eigenvalues --   -0.48018  -0.18615  -0.17821  -0.17821  -0.17085
 Alpha virt. eigenvalues --   -0.11033  -0.06101  -0.06101  -0.03637  -0.02416
 Alpha virt. eigenvalues --    0.02163   0.02163   0.06479   0.09431   0.16291
 Alpha virt. eigenvalues --    0.16291   0.32565   0.63742   0.63742   0.65575

 Mulliken charges:
               1
     1  Cr   0.466328
     2  C   -0.466328
 Sum of Mulliken charges =   0.00000

 Dipole moment (field-independent basis, Debye):
    X=              0.0000    Y=              0.0000    Z=             -4.3747  Tot=              4.3747
 Quadrupole moment (field-independent basis, Debye-Ang):
   XX=            -20.4458   YY=            -20.4458   ZZ=            -32.4970
   XY=              0.0000   XZ=              0.0000   YZ=              0.0000

 Normal termination of Gaussian 09 at Thu Jun 18 14:11:44 2015.
