 Gaussian 09, Revision D.01,
 Gaussian 09:  ES64L-G09RevD.01 24-Apr-2013

 ----------------------------------------
 #p rb3lyp/6-31g guess=core symmetry=none
 ----------------------------------------

 -------------------
 Title Card Required
 -------------------
 Symbolic Z-matrix:
 Charge =  0 Multiplicity = 1

                          Input orientation:
 ---------------------------------------------------------------------
 Center     Atomic      Atomic             Coordinates (Angstroms)
 Number     Number       Type             X           Y           Z
 ---------------------------------------------------------------------
      1         24           0        0.000000    0.000000    0.000000
      2          6           0        0.000000    0.000000    2.000000
 ---------------------------------------------------------------------

 SCF Done:  E(RB3LYP) =  -1082.11401606     A.U. after   32 cycles

 Alpha  occ. eigenvalues -- -215.70853 -24.68929 -20.99509 -20.97600 -20.97600
 Alpha  occ. eigenvalues --  -10.20667  -2.84637  -1.80783  -1.78611  -1.78611
 Alpha  occ. eigenvalues --   -0.48298  -0.18579  -0.17916  -0.17916  -0.17143
 Alpha virt. eigenvalues --   -0.11136  -0.06168  -0.06168  -0.03686  -0.02510
 Alpha virt. eigenvalues --    0.02106   0.02106   0.06438   0.09416   0.16261
 Alpha virt. eigenvalues --    0.16261   0.32440   0.63706   0.63706   0.66435

 Mulliken charges:
               1
     1  Cr   0.444147
     2  C   -0.444147
 Sum of Mulliken charges =   0.00000

 Dipole moment (field-independent basis, Debye):
    X=              0.0000    Y=              0.0000    Z=             -4.4386  Tot=              4.4386
 Quadrupole moment (field-independent basis, Debye-Ang):
   XX=            -20.4329   YY=            -20.4329   ZZ=            -32.9181
   XY=              0.0000   XZ=              0.0000   YZ=              0.0000

 Normal termination of Gaussian 09 at Thu Jun 18 14:05:20 2015.
