 Gaussian 09, Revision D.01,
 Gaussian 09:  ES64L-G09RevD.01 24-Apr-2013

 ----------------------------------------
 #p ub3lyp/6-31g guess=core symmetry=none
 ----------------------------------------

 -------------------
 Title Card Required
 -------------------
 Symbolic Z-matrix:
 Charge =  0 Multiplicity = 3

                          Input orientation:
 ---------------------------------------------------------------------
 Center     Atomic      Atomic             Coordinates (Angstroms)
 Number     Number       Type             X           Y           Z
 ---------------------------------------------------------------------
      1         24           0        0.000000    0.000000    0.000000
      2          6           0        0.000000    0.000000    2.000000
 ---------------------------------------------------------------------

 SCF Done:  E(UB3LYP) =  -1082.24117140     A.U. after   38 cycles

 Alpha  occ. eigenvalues -- -215.64799 -24.65768 -20.94831 -20.94429 -20.94429
 Alpha  occ. eigenvalues --  -10.15289  -2.89264  -1.85083  -1.84481  -1.84481
 Alpha  occ. eigenvalues --   -0.41042  -0.22215  -0.22215  -0.20545  -0.20544
 Alpha  occ. eigenvalues --   -0.18661
 Alpha virt. eigenvalues --   -0.11671  -0.05025  -0.05025  -0.00806   0.05209
 Alpha virt. eigenvalues --    0.05209   0.06787   0.09426   0.15683   0.15683
 Alpha virt. eigenvalues --    0.33426   0.68445   0.68445   0.68898   0.77034

  Beta  occ. eigenvalues -- -215.64723 -24.60049 -20.90794 -20.89308 -20.89308
  Beta  occ. eigenvalues --  -10.18605  -2.72268  -1.68971  -1.65498  -1.65498
  Beta  occ. eigenvalues --   -0.53295  -0.22300  -0.19472  -0.19472
  Beta virt. eigenvalues --   -0.09021  -0.00270  -0.00270  -0.00112   0.06639
  Beta virt. eigenvalues --    0.06640   0.06777   0.06777   0.08243   0.10667
  Beta virt. eigenvalues --    0.18824   0.18824   0.34576   0.61182   0.61182

 Mulliken charges and spin densities:
               1          2
     1  Cr   0.422836   4.535349
     2  C   -0.422836  -2.535349
 Sum of Mulliken charges =   0.00000   2.00000

 Dipole moment (field-independent basis, Debye):
    X=              0.0000    Y=              0.0000    Z=             -4.3284  Tot=              4.3284
 Quadrupole moment (field-independent basis, Debye-Ang):
   XX=            -21.5511   YY=            -21.5511   ZZ=            -27.6542
   XY=              0.0000   XZ=              0.0000   YZ=              0.0000

 Normal termination of Gaussian 09 at Thu Jun 18 14:05:55 2015.
