 Gaussian 09, Revision D.01,
 Gaussian 09:  ES64L-G09RevD.01 24-Apr-2013

 -------------------
 # b3lyp/lanl2dz opt
 -------------------

 -------------------
 Title Card Required
 -------------------
 Symbolic Z-matrix:
 Charge =  0 Multiplicity = 1

 SCF Done:  E(RB3LYP) =  -375.304415255     A.U. after   15 cycles
 SCF Done:  E(RB3LYP) =  -375.312764601     A.U. after   27 cycles
 SCF Done:  E(RB3LYP) =  -375.328305620     A.U. after   27 cycles
 SCF Done:  E(RB3LYP) =  -375.328777516     A.U. after   27 cycles
 SCF Done:  E(RB3LYP) =  -375.328781802     A.U. after   26 cycles
 Optimization completed.
    -- Stationary point found.

                         Standard orientation:
 ---------------------------------------------------------------------
 Center     Atomic      Atomic             Coordinates (Angstroms)
 Number     Number       Type             X           Y           Z
 ---------------------------------------------------------------------
      1         44           0        0.681689    0.950591   -0.951156
      2         44           0       -0.681689    0.951950    0.951156
      3         44           0       -0.681689   -0.950591   -0.951156
      4         44           0        0.681689   -0.951950    0.951156
 ---------------------------------------------------------------------

 The electronic state is 1-A.
 Alpha  occ. eigenvalues --   -2.87095  -2.86331  -2.86331  -2.85834  -1.78007
 Alpha  occ. eigenvalues --   -1.76635  -1.76634  -1.76330  -1.74201  -1.73625
 Alpha  occ. eigenvalues --   -1.73226  -1.73109  -1.73108  -1.72842  -1.72842
 Alpha  occ. eigenvalues --   -1.72368  -0.34402  -0.28543  -0.28178  -0.28177
 Alpha  occ. eigenvalues --   -0.28020  -0.25782  -0.25780  -0.24050  -0.22347
 Alpha  occ. eigenvalues --   -0.20649  -0.19611  -0.19494  -0.19492  -0.18039
 Alpha  occ. eigenvalues --   -0.15789  -0.15660
 Alpha virt. eigenvalues --   -0.10845  -0.10844  -0.08720  -0.08719  -0.07704
 Alpha virt. eigenvalues --   -0.07703  -0.06793  -0.06479  -0.00782   0.00764
 Alpha virt. eigenvalues --    0.01262   0.01547   0.01547   0.02972   0.04393

 Mulliken charges:
               1
     1  Ru   0.000137
     2  Ru  -0.000137
     3  Ru   0.000137
     4  Ru  -0.000137
 Sum of Mulliken charges =   0.00000

 Dipole moment (field-independent basis, Debye):
    X=              0.0000    Y=              0.0000    Z=              0.0050  Tot=              0.0050
 Quadrupole moment (field-independent basis, Debye-Ang):
   XX=            -83.0068   YY=            -79.1835   ZZ=            -79.1865
   XY=              0.0000   XZ=              0.0000   YZ=              0.0000

 Normal termination of Gaussian 09 at Fri Jun 19 00:04:15 2015.
