 Gaussian 09, Revision D.01,
 Gaussian 09:  ES64L-G09RevD.01 24-Apr-2013

 --------------------------
 #p svwn5/6-31g* guess=core
 --------------------------

 -------------------
 Title Card Required
 -------------------
 Symbolic Z-matrix:
 Charge =  0 Multiplicity = 1

                         Standard orientation:
 ---------------------------------------------------------------------
 Center     Atomic      Atomic             Coordinates (Angstroms)
 Number     Number       Type             X           Y           Z
 ---------------------------------------------------------------------
      1         14           0        0.000000    0.000000    0.140556
      2          1           0        0.000000    1.385929    0.630556
      3          1           0        1.200250   -0.692965    0.630556
      4          1           0       -1.200250   -0.692965    0.630556
      5          1           0        0.000000    0.000000   -3.859444
 ---------------------------------------------------------------------

 SCF Done:  E(RS-VWN5) =  -290.457688411     A.U. after   22 cycles

 The electronic state is 1-A1.
 Alpha  occ. eigenvalues --  -65.15578  -5.05741  -3.50031  -3.49627  -3.49627
 Alpha  occ. eigenvalues --   -0.50426  -0.33393  -0.33393  -0.20149
 Alpha virt. eigenvalues --   -0.17957   0.01415   0.01415   0.06075   0.12772
 Alpha virt. eigenvalues --    0.18441   0.18441   0.21359   0.50026   0.50026
 Alpha virt. eigenvalues --    0.59243   0.59467   0.59467   0.77556   0.90202

 Mulliken charges:
               1
     1  Si   0.006492
     2  H    0.020068
     3  H    0.020068
     4  H    0.020068
     5  H   -0.066697
 Sum of Mulliken charges =   0.00000

 Dipole moment (field-independent basis, Debye):
    X=              0.0000    Y=              0.0000    Z=              1.7663  Tot=              1.7663
 Quadrupole moment (field-independent basis, Debye-Ang):
   XX=            -16.8148   YY=            -16.8148   ZZ=            -22.1554
   XY=              0.0000   XZ=              0.0000   YZ=              0.0000

 Normal termination of Gaussian 09 at Tue Jun 23 13:23:52 2015.
