 Gaussian 09, Revision D.01,
 Gaussian 09:  ES64L-G09RevD.01 24-Apr-2013

 ----------------------------------------------------------------------
 #p ub3lyp/6-31g guess=core symmetry=none IOp(5/18=-2) IOp(5/10=-1) IOp
 (5/22=10)
 ----------------------------------------------------------------------

 -----
 title
 -----
 Symbolic Z-matrix:
 Charge = -1 Multiplicity = 2

                          Input orientation:
 ---------------------------------------------------------------------
 Center     Atomic      Atomic             Coordinates (Angstroms)
 Number     Number       Type             X           Y           Z
 ---------------------------------------------------------------------
      1          8           0        0.000000    0.000000    0.000000
      2          1           0        0.000000    0.000000    1.000000
      3          1           0        0.000000    1.000000    0.000000
 ---------------------------------------------------------------------

 SCF Done:  E(UB3LYP) =  -76.2280093399     A.U. after   14 cycles

 Alpha  occ. eigenvalues --  -18.78382  -0.66573  -0.14733  -0.07021   0.03626
 Alpha  occ. eigenvalues --    0.26078
 Alpha virt. eigenvalues --    0.40319   1.07033   1.17244   1.19660   1.29135
 Alpha virt. eigenvalues --    1.35144   1.79900
  Beta  occ. eigenvalues --  -18.77525  -0.64086  -0.13479  -0.05150   0.04527
  Beta virt. eigenvalues --    0.36469   0.44373   1.08379   1.20294   1.20621
  Beta virt. eigenvalues --    1.30684   1.36296   1.81350

 Mulliken charges and spin densities:
               1          2
     1  O   -0.603847  -0.069724
     2  H   -0.198076   0.534862
     3  H   -0.198076   0.534862
 Sum of Mulliken charges =  -1.00000   1.00000

 Dipole moment (field-independent basis, Debye):
    X=              0.0000    Y=             -0.9108    Z=             -0.9108  Tot=              1.2881
 Quadrupole moment (field-independent basis, Debye-Ang):
   XX=             -9.8891   YY=            -11.3294   ZZ=            -11.3294
   XY=              0.0000   XZ=              0.0000   YZ=             -0.4811

 Normal termination of Gaussian 09 at Sat Jun 27 09:09:42 2015.
