 Gaussian 09, Revision D.01,
 Gaussian 09:  ES64L-G09RevD.01 24-Apr-2013

 ----------------------------------------------------------------------
 #p b3lyp/sto-3g guess=cards symmetry=none population=full scf(maxcycle
 =1) iop(5/33=3) iop(3/33=1) iop(5/13=1)
 ----------------------------------------------------------------------

 iop(5/33=3): print fock; iop(3/33=1): print 1-e integrals; iop(5/13=1)
 : do not terminate when scf fails
 ----------------------------------------------------------------------
 Symbolic Z-matrix:
 Charge =  0 Multiplicity = 1

                          Input orientation:
 ---------------------------------------------------------------------
 Center     Atomic      Atomic             Coordinates (Angstroms)
 Number     Number       Type             X           Y           Z
 ---------------------------------------------------------------------
      1          8           0       -2.540620   -0.228951    0.000000
      2          1           0       -1.580620   -0.228951    0.000000
      3          1           0       -2.861075    0.675985    0.000000
 ---------------------------------------------------------------------

 SCF Done:  E(RB3LYP) =  -74.6428875883     A.U. after    2 cycles

 Alpha  occ. eigenvalues --  -19.69884  -1.28695  -0.70208  -0.61774  -0.60419
 Alpha virt. eigenvalues --    0.22038   0.30884

 Mulliken charges:
               1
     1  O   -1.330109
     2  H    0.665984
     3  H    0.664125
 Sum of Mulliken charges =   0.00000

 Dipole moment (field-independent basis, Debye):
    X=              2.1965    Y=              3.0963    Z=              0.0000  Tot=              3.7962
 Quadrupole moment (field-independent basis, Debye-Ang):
   XX=            -13.2172   YY=             -4.2038   ZZ=             -5.7082
   XY=             -9.3895   XZ=              0.0000   YZ=              0.0000

 Normal termination of Gaussian 09 at Sat Jun 27 23:58:28 2015.
